72
Lattice="3.79391177 -6.57119781 -5.8e-07 3.79390164 6.57119196 6.3e-07 9e-08 1.28e-06 13.66754122" Properties=species:S:1:pos:R:3:forces:R:3 config_type=Graphite kpoints="2 2 2" kpoints_density="2.41572115 2.41571792 4.35133436" virial="-115.74851837 0.04720341 -0.00241367 0.04720341 -115.66280744 0.00149945 -0.00241367 0.00149945 -2.40129923" cutoff=-1.0 nneightol=1.2 Polymorph=Graphite energy=-575.34911815 pbc="T T T"
C        0.42458070      -0.00193387       1.70599849      -0.18648385      -0.03696626       0.02678440
C        4.21323506      -5.11283838       5.12287310       0.08250470       0.18295082       0.04714163
C        4.21173111      -3.65155537       1.70691964       0.18602288       0.17416808       0.06102580
C        2.95014288      -4.38221502       5.12472866      -0.06294895       0.04181944      -0.02532042
C        2.95512759      -4.37939394       1.70915312      -0.24715772      -0.12703993      -0.02077893
C        5.47953390       1.45575963      11.95592240       0.09242402       0.22619582       0.01588612
C        5.47726114       2.92133652       8.53818520       0.15845768       0.04863243       0.02392924
C        2.94966418      -4.37880649       8.53855080       0.02593198      -0.16625737       0.02889255
C        4.21308087       2.18929067      11.95540296       0.22245880       0.07799000       0.02246379
C        5.47997580       1.46141869       5.12435309      -0.04197363      -0.01960609      -0.01636223
C        5.48319306       2.92410715       1.70838501      -0.19497497      -0.20821386       0.02707383
C        4.21382208       2.19389039       5.12375423       0.14207496      -0.09780564       0.01080816
C        4.21212216       2.18606681       1.70819632       0.20455681       0.31793189       0.00257789
C        4.21706354      -0.73094715      11.95820809       0.02163370      -0.02854126       0.01440114
C        4.21387209       0.73241702       8.54614223      -0.03321440      -0.07984680      -0.07886596
C        4.21574152       2.19155071       8.54066086      -0.14973692      -0.03530418       0.02701380
C        2.95452890       0.00043307      11.95971581      -0.03461667      -0.01556213      -0.02550077
C        2.95400592      -4.38554973      11.96251849      -0.25412148       0.20785820      -0.04532273
C        4.21475423      -5.11147665      11.96192088       0.13058974       0.02700338       0.00232324
C        5.48332539       0.00351156      11.95495256      -0.09383437      -0.30275649       0.04014376
C        5.47607681       0.00109305       8.53884849       0.08237973      -0.11129788       0.08641460
C        6.74237433      -0.72727152       5.12433212       0.03253175      -0.08205318      -0.00678668
C        6.74787625       0.72828463       1.70770759      -0.11663226       0.04187521       0.00578623
C        5.47794980       0.00032173       5.12097516       0.07718415       0.10523521       0.06084729
C        5.47769017      -0.00212892       1.71120804       0.26233057       0.13392961      -0.00770016
C        4.21717173      -3.65305093       8.53907981      -0.13818235       0.03647994       0.04443165
C        5.48400664      -2.91972621      11.95642223      -0.31974804      -0.14706989       0.07827549
C        4.21484868      -2.19492546      11.96338440       0.00310448       0.25290022      -0.07412122
C        4.21317938      -2.19289679       8.54601061       0.11168606       0.03188252      -0.10415693
C        5.48043904      -2.92259675       5.12888388      -0.19808609       0.22447810      -0.07711045
C        5.48436587      -1.45686577       1.71051688      -0.27383975      -0.24468151      -0.00497097
C        4.21226271      -2.18771789       5.12652670       0.10382160      -0.09790525      -0.00283601
C        4.21180761      -2.18867438       1.71258784       0.22553172      -0.00106279      -0.05137818
C        5.47803821      -1.46318977       8.54241148       0.08481682       0.11408599       0.01957337
C        2.94645237      -0.00140659       8.54442975       0.20829931       0.11858256      -0.00475798
C        4.21574750      -0.72793273       5.12610560      -0.15034756      -0.10234996      -0.01701924
C        4.21572628       0.72899699       1.71286474      -0.14059178       0.03002831      -0.02653168
C        2.94616478       2.91860446       8.54115268       0.28217488       0.12448533       0.01592443
C        1.68492137       2.19286945      11.96157589       0.16396029      -0.10334189      -0.04561185
C        1.68782286       2.18679827       8.54070704      -0.09156639       0.08631616       0.02471694
C        2.95384695       1.46445785       5.12451763      -0.28738716      -0.11707708       0.00564905
C        2.94668120       2.92449233       1.70502209       0.11257306      -0.33367585       0.05332755
C        1.68335839       2.19425862       5.12408306       0.15490899      -0.22131087       0.01898422
C        2.95464660       1.46333928      11.95744768      -0.25403327      -0.11415880       0.01615784
C        1.68336990       2.19334964       1.71098475      -0.03226450      -0.08702515      -0.04805911
C        1.68873205       0.72932912       8.54622408      -0.25788046      -0.09478745      -0.04574732
C        0.42558710       0.00083888      11.96018678      -0.12194397      -0.15022885      -0.00284075
C        0.41729019      -0.00360343       8.54479383       0.23224691       0.22710012       0.02341956
C        1.68492605      -0.72799242       5.12610818       0.05442765      -0.04829584       0.04764750
C        1.68241466       0.73029781       1.71122312       0.17717831       0.10842794      -0.01750016
C        0.42195435       0.00350135       5.12878366      -0.10760366      -0.16201951      -0.06838992
C        1.68905364      -0.72993712      11.95817582      -0.03015168       0.01072961       0.03312069
C        2.95111064       4.37646428       1.70625094       0.05698213       0.29234537      -0.00408639
C        2.94610494       4.38201378       5.12241610       0.26159659      -0.03304923       0.05762265
C        4.21837121       5.10682191       1.70518932      -0.12800206       0.13109290       0.04119871
C        2.94807326      -0.00040507       5.12768754       0.12905283       0.17972553      -0.03417040
C        2.94805867       0.00343245       1.71258667       0.08384715      -0.13302748      -0.01254390
C        2.94742069      -2.91842822      11.96040603       0.17387361      -0.28201905       0.03381169
C        2.94943020      -1.45870180       8.53832323       0.05894464      -0.12718848       0.08799666
C        1.68389672      -2.19223037      11.95985132       0.08967524       0.13578565      -0.01335851
C        1.68901498      -2.18825933       8.54151958      -0.11863999      -0.04295165      -0.02197625
C        2.94761872      -2.91995292       5.12305439       0.18133664       0.00391673       0.05802587
C        2.95180609      -1.45944649       1.71014538      -0.07773760       0.14344763       0.04548077
C        1.68934377      -2.18985546       5.12843577      -0.23112002       0.01279443      -0.06352880
C        1.68613384      -2.18680563       1.71250268       0.08859780      -0.20162882      -0.07527718
C        4.21729610       3.65052944      11.95874440      -0.21888215      -0.05989888      -0.00583973
C        4.21886351       5.11436030       8.54597644      -0.11517494      -0.20265467      -0.02913936
C        2.94586199       4.37825458      11.95955111       0.36925929       0.13327423      -0.02307572
C        2.95476076       4.38180578       8.54475530      -0.23102351      -0.07174699      -0.02640067
C        4.21710250       3.64923875       5.12424585      -0.13959869       0.22966504       0.00911719
C        6.74382125       0.72712683       8.54486706      -0.10919205       0.14499620      -0.07313020
C        6.74550132      -0.73257856      11.95957390       0.05971542       0.13227641      -0.01779854
72
Lattice="3.62864164 -6.2849923 0.0 3.62864164 6.2849923 0.0 0.0 0.0 13.15406096" Properties=species:S:1:pos:R:3:forces:R:3 config_type=Graphite kpoints="2 2 2" kpoints_density="2.31050106 2.31050106 4.18785768" virial="98.09649146 -4.62679403 -3.6576818 -4.62679403 94.18857478 3.11072786 -3.6576818 3.11072786 25.95007163" cutoff=-1.0 nneightol=1.2 Polymorph=Graphite energy=-570.26864252 pbc="T T T"
C        0.73782909      -0.08570800       1.53609336      -1.29668547       1.89705810      -1.51393280
C        5.19389562       0.71006435       5.10081586       1.83600523       1.56297641      -0.61466417
C        4.33414211      -3.52468037       1.36922594      -0.23198531      -0.37271085       0.74044041
C        4.03468824       1.40837966       5.08059359      -4.29708367       1.47987824       0.04075969
C        3.14258241      -4.26733467       1.41199571      -0.43910928       2.67821078       0.32383769
C        5.09995803       1.37813836      11.79826677       1.74494572       0.63733387      -0.95371906
C        3.82622785      -2.55683241       8.01611329       0.15947289      -3.21409170       0.86633534
C        5.07513301      -3.28298333       8.04668412      -4.54253249      -1.37537518       0.42574507
C        3.90183155       2.07472951      11.66126380       0.74698502       1.32709175       0.57337577
C        2.72712272       0.72476451       5.03391141       3.28938106       0.58698907       0.35988890
C        5.55453412       2.78493137       1.41747740      -1.14618226      -2.29202764       0.22362391
C        1.55863780       1.43407221       5.19497815      -0.44313880       0.67642224      -0.68612051
C        4.30327993       2.07514721       1.49499783       2.35771241      -0.41272259       0.62274962
C        3.91394286      -0.66488393      11.69595869      -0.01459174      -2.51913121      -0.71556134
C        6.21023601       1.62301812       8.07480198       0.14718192      -0.50722603       0.09598127
C        2.59885756      -3.27955857       8.02808744       1.04089667       0.61121146       0.47829738
C        2.69534478      -0.02281188      11.70343388       0.66127191       2.23256503       0.68447531
C        2.73785954      -4.23215971      11.78758909      -2.03399036       1.44864727      -0.09018142
C        3.94607804      -4.87230767      11.81372581       0.68968977      -1.46708554      -0.92354618
C        5.10804940       0.00196400      11.76487374       1.68409839      -0.29620183       0.06153353
C        3.76599705      -5.36772420       8.10319397       2.89510794      -0.44276881       0.27814473
C        3.94609234      -1.33209557       5.11615454       0.98456673      -2.08517085      -1.12782782
C        6.79355783       0.65088134       1.46901580      -1.29193446      -1.50998297       0.84649673
C        2.74868370      -0.66956989       5.02580443      -1.69863379       0.78429554      -0.24015158
C        5.54183493      -0.03504996       1.45258151       2.14301256      -1.49822976       0.09909650
C        2.57472187       3.67570000       8.03292589       4.41166329       2.01905574       0.82007122
C        5.14378444      -2.75472771      11.69646933       1.38027152      -0.65263619      -0.40401487
C        3.94212471      -2.10179381      11.64330456      -0.99829396       1.23580364       0.70647819
C        6.28028520      -1.21000073       8.12799213      -2.26423356       0.55131526      -0.08777786
C        2.72991271      -3.45595945       5.13999352       0.64781915       0.73033034      -0.66771607
C        5.54165970      -1.46568208       1.34095365       0.44086683       2.38101072       1.04332067
C        5.15202124       3.54940151       5.21458625       0.19092879       0.44073297      -1.88326796
C        4.31605423      -2.10369144       1.32869196       1.55005375      -2.36942943       0.20526409
C        3.81946193       5.78811357       8.10640487       0.91695274       0.41976297       0.74374170
C        5.01293813       0.90578699       8.07650293       0.07152311       0.44027793       1.53118804
C        1.48593920      -1.33575469       5.02348077       3.14469548      -1.37027268       1.07210659
C        4.36809142       0.64807466       1.52345388      -1.48410273       2.17429558      -0.12722164
C        5.02381229       3.68072385       8.06627433       0.20070754       1.03549635       0.56900328
C        1.51454034       2.11815811      11.68113775      -0.72938630       1.00799074       0.62679098
C        3.82040947       3.01071683       8.04428087      -1.18742869      -1.14715144       1.12847827
C        3.97228471      -5.53459973       5.22831172       0.23831626      -0.04039817      -1.54082740
C        3.09721960       2.75903306       1.51406754       1.16792836      -0.29478387      -0.60489298
C        2.79408331      -4.83216643       5.09714995      -1.96076668      -1.18167469       0.72747383
C        2.68732007       1.42176312      11.74770177       0.78033446      -2.32887015      -1.24793233
C        1.91045192       2.04483764       1.48255185      -1.26832789       0.58966445      -0.34832835
C        3.79735693       1.62157528       8.17148775       0.80055450      -0.47284963      -1.72703900
C        0.34628015       0.00375421      11.85350093      -1.51901277      -0.41612538      -0.25272203
C        2.60431254       0.91068219       8.01784516       0.52887352      -0.52228819       1.66931780
C        6.38470640      -1.38124880       5.05181685      -0.15916215       0.30554247       0.83487230
C        1.89984888       0.65069185       1.39272356       1.99952483      -0.07380780       1.97118990
C        5.18594084      -0.65405413       5.09622719      -0.59252274      -2.02110405      -0.32166239
C        1.53032337      -0.73863392      11.84216858      -0.60376423       1.05139341      -1.38781593
C        3.13976009       4.14383589       1.36636822      -1.67821715      -0.26567958       0.85607640
C        3.94059124      -2.77456755       5.07017716       1.24363576       1.89992649       0.73049031
C        4.33350241       4.83376728       1.36935945      -0.22632991       0.03329774       1.08380427
C        3.94955032       5.63921456       5.11520180      -1.01023233       0.03387900      -0.65476001
C        3.15969316      -0.01747963       1.44877025      -1.33846752      -0.79809729      -0.63797315
C        2.73212164      -2.81782187      11.76815699       1.19240685      -0.58260371      -1.47258446
C        5.08141172      -0.47938276       8.17211980      -1.69607511      -1.29638249      -0.63885378
C        1.54651734      -2.11852622      11.72644612      -1.26132616      -0.59099967       0.11408456
C        3.83559570      -1.21721446       8.09067538       0.93171614       3.23571223       0.34031369
C        3.96341308       2.85447092       5.17787866       1.58316519      -3.37752466      -0.27496228
C        3.15961028      -1.40637268       1.28234284      -3.20332970       0.21224462       1.47694544
C        2.76897899       3.48838907       5.17049857      -0.94967385       2.93310717      -1.15574522
C        1.88774965      -2.12609310       1.34437568       3.28295192       0.20390055       0.10215852
C        3.95440904       3.48536511      11.67468726      -0.73907392       0.42793656       0.38535697
C        2.63810531      -0.48431352       8.05716607      -1.39761757      -1.41571154       0.59254769
C        2.75338269       4.24766849      11.79608214      -0.45384679      -3.68438710      -1.49984643
C        1.40405829      -1.21688431       8.13992168       0.99788861       1.99624696      -0.84076616
C        5.18734998      -3.43460374       5.17640883      -1.66842389      -1.75469661      -0.79716335
C        1.41807551       1.59422557       8.09177137      -2.44335143       0.46022808      -0.17762680
C        6.36121860      -0.69849569      11.83530150       0.18572787       2.90836754      -0.43465125
72
Lattice="3.62864164 -6.2849923 0.0 3.62864164 6.2849923 0.0 0.0 0.0 13.15406096" Properties=species:S:1:pos:R:3:forces:R:3 config_type=Graphite kpoints="2 2 2" kpoints_density="2.31050106 2.31050106 4.18785768" virial="97.63482093 -5.13500905 -5.4130973 -5.13500905 94.75514439 1.98269818 -5.4130973 1.98269818 27.49799298" cutoff=-1.0 nneightol=1.2 Polymorph=Graphite energy=-569.71433592 pbc="T T T"
C        0.64537485       0.00260381       1.35698319       0.52082246      -0.81687774       1.92215123
C        5.30068059       0.78044005       5.15885039       1.20075459       0.55450871      -0.19155661
C        4.31043372      -3.58438793       1.39849754       2.20749794       3.63534520       0.49038506
C        4.12521776       1.45954968       5.15208499      -3.42433222       1.48201292      -0.62205046
C        3.12762950      -4.20214610       1.47745071      -1.86143254      -0.51413922       0.02149665
C        5.15543579       1.40172813      11.81626810       1.35918550       0.77811155      -0.17317877
C        3.67176845      -2.56991079       8.00448642       1.00069619      -2.35916004       0.07308609
C        4.90893556      -3.30618651       8.03430325      -2.72553498      -1.23158841       0.58129951
C        3.94655343       2.08682441      11.84853961      -0.47982714       0.44374704      -1.23802036
C        2.85169413       0.77605419       5.13391332       2.47227965       1.33048598      -0.60716855
C        5.55376949       2.80206338       1.43207814      -1.42522432      -2.63949373       1.03712383
C        1.66039794       1.48660614       5.07826454      -0.08537764       0.49671051       0.40166556
C        4.37153326       2.04782075       1.45220281      -2.00427353      -0.07228276      -0.87086791
C        3.97764809      -0.71567320      11.75286460      -0.23877678      -0.95401072      -0.06593319
C        6.14541675       1.54070754       8.06485172      -0.84825209       1.80850423       0.66737815
C        2.49549132      -3.32698657       8.02664720       0.70229541       0.06634387       0.48179843
C        2.77612386      -0.05610550      11.79704357      -1.90114727       2.31127458      -1.48869682
C        2.79968267      -4.18450061      11.78595036      -3.80132997      -1.87864387      -0.58632246
C        3.94163807      -4.90261648      11.76964774       2.58019460      -1.01400542      -0.32121349
C        5.16087828       0.02874636      11.78937633      -0.60911221      -0.82578885      -0.38757128
C        3.67808823      -5.43506468       8.06757579       2.79875246      -1.08204220       0.07453998
C        4.08666240      -1.28597334       5.14301435       0.90911179      -1.09617691       0.38244885
C        6.70358014       0.70893041       1.47342557      -0.38655343      -2.46417815      -0.41450999
C        2.90320291      -0.59339145       5.09975169      -1.67142187      -1.15079745      -0.21879647
C        5.49889757      -0.06122657       1.41871414       1.53583834      -0.08341489       0.57030690
C        2.43672438       3.63879886       8.10502067       4.20959137       0.80354342      -0.16374470
C        5.15713697      -2.82990653      11.67288712       0.00391246       1.12396878      -0.00010670
C        3.94794842      -2.13888652      11.72679181       0.02954327       1.06578938      -0.94461126
C        6.12467206      -1.25041436       7.99875690      -0.74896869       0.56185039       1.10627158
C        2.93595928      -3.41302170       5.10923643      -2.57907753      -0.84916870      -0.21372148
C        5.52607980      -1.47986611       1.44286461      -0.55709916       1.86810430       0.07222266
C        1.69240731      -2.73003046       4.98445990      -0.45062882       0.54083099       1.50585241
C        4.30880787      -2.13291333       1.44986243       0.04770454      -2.15470163       0.15189028
C        3.72494107       5.71062885       8.05519059      -1.74641384       1.65763221       0.14606262
C        4.95541378       0.85532341       8.10107064      -1.79814960       1.02798436      -1.01414910
C        1.69269307      -1.32534040       5.13760724       0.49993693      -0.82966853      -1.42158183
C        4.31359431       0.62416805       1.35907929      -0.35714676       1.64654746       1.01159180
C        4.94923380       3.66981932       8.03679398      -1.84298829      -0.54776453       0.19928340
C        1.56503662       2.07073615      11.75854466      -2.79289005       0.34848998      -0.88766614
C        3.72666337       2.94270605       8.11140776      -1.18884981       1.00835897      -0.44811465
C        0.46602046       0.75492996       5.07559965       0.17902230       0.37413782       0.57092241
C        3.11669767       2.73670908       1.35011572       1.68817035      -0.18264439       1.24264445
C        2.89763070      -4.81974332       5.17182187       0.32671747       0.23517160      -1.13005508
C        2.72920563       1.41427430      11.75669914       2.52825415      -3.81962147       0.41900148
C        1.92242578       2.03987137       1.33945238      -1.45982285       1.01422293       1.16581555
C        3.72997676       1.55755685       8.00111924      -0.81827403       0.35834576       2.43659709
C        0.29522723      -0.02671675      11.73211118       2.12105831       0.58936938      -0.39216696
C        2.46943404       0.88509083       8.15310021       2.30629714       0.50383745      -1.18742437
C        2.87950589       4.97799321       5.34251712       0.56969394      -0.51325234      -2.20864461
C        1.86442441       0.69272764       1.48668894       1.16298678      -2.72052122      -1.68387662
C        5.28852598      -0.59029282       5.21557688       1.09447619      -1.73921495      -0.34523402
C        1.55026609      -0.74067666      11.64159164      -1.05703027       0.51132031       1.05993785
C        3.09261714       4.12402371       1.43240515       0.90529216       0.37563611      -0.32587928
C        4.09127150      -2.70812720       5.28397182       0.78697785       1.61858321      -1.81048403
C        4.29345727       4.86047441       1.40232800      -1.26237143       0.61188488       0.26856929
C        0.48846292      -0.64782973       5.18179923      -1.25634881       0.72652131      -0.18103118
C        3.08775839      -0.04592098       1.35271088      -0.35991159       0.23861833       1.79707298
C        2.73456949      -2.84022479      11.66571027       0.32276628       2.38857181       0.91775364
C        4.92492869      -0.49145755       7.94609620      -0.45640918      -3.13367001       1.24853343
C        1.50600686      -2.13910335      11.73135653       0.83633214       0.45551548      -1.02232634
C        3.65737558      -1.20294797       7.93847329       2.48446291       1.38773738       1.10048284
C        4.05737577       2.88263830       5.12374707       3.85212336      -1.58661761      -1.01025452
C        3.12286299      -1.43523217       1.50894798      -2.65792669      -0.03115324      -0.93414978
C        2.89341131       3.55806129       5.22350760      -1.70657548       2.12014325       0.47064231
C        1.83128486      -2.13921868       1.44283501       3.61317576       2.52289219       0.45723965
C        3.91415031       3.47860993      11.76299271       0.04407432       0.84752290      -0.73450933
C        2.48992705      -0.48405320       8.06427847      -0.79500850      -1.30214814      -0.09234001
C        2.70146318       4.21535163      11.63203403       0.98440673      -1.60945225       0.89859025
C        1.30505494      -1.21311294       7.99163819       0.21023466      -0.77242750       1.32824902
C        5.29385439      -3.38308075       5.25243430       0.51400977      -1.91325184      -0.97451866
C        1.28859730       1.55302795       8.04530978      -2.02576353       1.44371659       0.97875746
C        6.34019810      -0.67857566      11.74322702       0.77160084      -0.99601481      -0.94518767
72
Lattice="3.62864164 -6.2849923 0.0 3.62864164 6.2849923 0.0 0.0 0.0 13.15406096" Properties=species:S:1:pos:R:3:forces:R:3 config_type=Graphite kpoints="2 2 2" kpoints_density="2.31050106 2.31050106 4.18785768" virial="92.42299708 -1.57533506 -1.68114032 -1.57533506 92.87036571 0.94927294 -1.68114032 0.94927294 26.38434194" cutoff=-1.0 nneightol=1.2 Polymorph=Graphite energy=-571.59185126 pbc="T T T"
C        0.47880358      -0.08119726       1.33244034       0.37162388       1.47614241       1.58016162
C        3.88910053      -4.81172713       5.18811581       1.02859041      -1.48707587      -0.79151429
C        4.11053944      -3.55980675       1.31238711      -0.31703598       0.43918011       0.72820716
C        2.68910649      -4.13664140       5.12820380      -0.10295915       0.41324214       0.86745099
C        2.89740823      -4.24767936       1.42179127       0.37999566      -0.37184015       0.25043690
C        5.20445899       1.38456476      11.74385736      -1.04064684       0.62836008       0.34552785
C        5.33395389       2.83689336       7.94205843      -0.85751426       0.61955636       0.10277770
C        2.90810100      -4.14410539       7.99785177       0.72389034       0.95549105      -0.57767797
C        3.97523541       2.08551166      11.83878101       1.19451682       0.02082902      -1.72896639
C        5.11119648       1.44443214       5.19200809      -0.26287594       0.43241381      -1.04659545
C        5.32642794       2.73690417       1.49603766      -0.24595639      -0.03202059      -0.54893242
C        3.89328247       2.15058094       5.13202676       0.50688885      -0.42744595      -0.25088738
C        4.11105608       2.05247667       1.41147573       0.14320212      -1.69389330       1.49938242
C        3.97094817      -0.67512357      11.68563736       0.76048764      -1.91918707       0.39163981
C        4.11788795       0.77010922       8.11151259      -0.23250941      -0.35050959      -1.81980920
C        4.10803444       2.15796763       7.87394973       0.47233936      -0.32062777       2.06555250
C        2.78752483       0.00721593      11.71180433      -1.10128356      -0.07483768      -0.63407358
C        2.76573328      -4.19217666      11.80468095       0.42583181       0.08982310      -0.37834929
C        3.97450148      -4.88425783      11.78407169       0.43700604      -0.28670470      -0.39719154
C        5.18156803       0.00042348      11.70787522       0.77112678      -0.38593938      -0.19895164
C        5.31801875       0.06758881       7.92236575       0.38094577       0.07277318       1.62155938
C        6.32732023      -0.65455511       5.21910375      -0.30483963       0.94027759       0.09408082
C        6.52127980       0.63871636       1.38347678       0.53463098      -0.44670117       0.71596680
C        5.10476518       0.05877731       5.23860846       0.23819858      -0.53928421      -0.85075217
C        5.32515857      -0.07786622       1.48397473      -0.34225241       0.94377359      -0.37574754
C        4.13008526      -3.44849489       7.83961763      -1.37656875       0.69583721       2.07446729
C        5.20201405      -2.79323133      11.93768469      -0.12590644      -0.11659221      -2.82325152
C        3.96772456      -2.09322058      11.82569575       1.23691926       0.28491468      -0.31658520
C        4.09611388      -2.03414555       7.91221515       1.31139416      -0.38541544       0.32115321
C        5.13025922      -2.74771435       5.29741711      -0.74506368       0.59343964      -1.04309536
C        5.32621600      -1.45155630       1.30620496      -0.30605469      -0.50943367       1.44162251
C        3.89069488      -2.02301910       5.22864873       1.17289438      -1.00344503      -0.16084224
C        4.11705056      -2.15799836       1.30000045      -0.60010039       0.32686014       0.73964039
C        5.32798267      -1.32396964       7.87381121      -0.89734488      -0.58618670       0.95842892
C        2.91672171       0.05460873       8.07129103      -0.46229090       0.09490934       0.74713738
C        3.87430993      -0.62501489       5.15615710       1.93114115      -1.08041406      -0.08889860
C        4.11354018       0.61863148       1.56056964      -0.13864298       1.22423130      -0.99900422
C        2.90923822       2.86294529       7.89858952      -0.49590210      -0.90118015       0.29473221
C        1.56867775       2.07229533      11.82297193      -0.02621456       1.44268283      -0.34743210
C        1.69296271       2.14532480       7.93527172       0.80618193       0.48578043      -0.05600595
C        2.68643037       1.44325911       5.08742384       0.67310883      -0.24319460      -0.07091045
C        2.90616584       2.73618918       1.33595379      -0.47549009       0.30997813       0.67442947
C        1.50028965       2.13272798       5.19788599      -1.19220031       1.24498780      -0.43409960
C        2.78652220       1.39333735      11.70154614      -0.80142697       0.18410780       0.65199027
C        1.68764773       2.02915784       1.30985548       0.59357593       0.39625830       1.02059206
C        1.69778108       0.75913713       8.02623390       0.23068644      -0.67053984       0.33464060
C        0.35569488       0.00754168      11.75850401      -0.27112100      -0.65621121      -0.53726450
C        0.49208804       0.05397470       8.02639240      -0.45899304      -0.03351613       0.23756953
C        1.47527626      -0.65606627       5.10668388       0.48489183       0.48006728      -0.21484812
C        1.70127601       0.65305231       1.45755690      -1.10237695      -1.38619573      -0.96894986
C        0.27791012       0.05646010       5.17995279      -0.52432464       0.24352623      -0.54952991
C        1.57547626      -0.69331227      11.74610473      -0.49890668      -0.08521385      -0.00146021
C        2.90101811       4.14118337       1.39139395      -0.13808212      -0.98341570      -0.17693845
C        2.71294793       4.24527755       5.29973038      -0.45039192      -0.53843899      -1.61209702